
/*--------------------------------*- C++ -*----------------------------------*
| =========                 |                                                 |
| \	    /  F ield         | OpenFOAM: The Open Source CFD Toolbox         |
|  \    /   O peration     | Version:  v1612+                                 |
|   \  /    A nd           | Web:	www.OpenFOAM.com                      |
|    \/     M anipulation  |                                                  |
\*---------------------------------------------------------------------------*/
FoamFile
{
    version     2.0;
    format	ascii;
    class	volVectorField;
    location    "0";
    object	U;
}
// * * * * * * * * * * * * * * * * * * * * * * * * * * * * * * * * * * * * * //


dimensions	[0 1 -1 0 0 0 0];

internalField   uniform (<var UINLET var>);


boundaryField
{
    INLET
    {
        type            turbulentDFSEMWaveTransmissiveInletMod;
        boxScale        1;
        d               <var EDDYDENSITY var>;
        coeffWakeU      (0 0 0);
        coeffWakeV      (0 0 0);
        nCellPerEddy    2;
        lastUPrime      uniform (1.6e-6 1e-06 1e-06);
        cyclicY         <var PITCHPER var>;
        cyclicZ         <var ZSPAN var>;
        uDashScaling    <var UDASHSCALING var>;
        gamma           1.4;
        lInf            <var UIN_LINF var>;
        coeffU          3{0};
        coeffV          3{0};
        y_min           0;
        y_max           1;
        relax           0.0001;
        qMean           nonuniform List<vector> 8((1 1 1) (1 1 1) (1 1 1) (1 1 1) (1 1 1) (1 1 1) (1 1 1) (1 1 1));
        R               uniform (<var RINLET var>);
        L               uniform <var LINLET var>;
        U               uniform (<var UINLET var>);
        mapMethod       nearestCell;
        value 		    uniform (<var UINLET var>);
        fieldInf        uniform (<var UINLET var>);
    }

    OUTLET
    {
     	type            waveTransmissive;
        gamma           1.4;
        value           uniform (35.392445 0   0.   ); //startwert only

    }

    BLADE
    {
     	type            noSlip;
    }

    Z_lower
    {
        type            cyclic;
    }

    Z_upper
    {
        type            cyclic;
    }

    Y_lower
    {
        type            cyclic;
    }

    Y_upper
    {
        type            cyclic;
    }

}


// ************************************************************************* //
